ITEM: TIMESTEP
0
ITEM: NUMBER OF ATOMS
11
ITEM: BOX BOUNDS xy xz yz pp pp pp
-8.475012507253197 -6.060798944880102 0.7071067811865476
-17.482525755171547 -16.482525755171547 0.7071067811865476
-15.55398358973015 -14.910389336824567 0.2928932188134524
ITEM: ATOMS id type xu yu zu
1 1    5.195  -12.688    2.404
2 1   -8.040    0.173    3.944
3 1   12.791    6.597   -4.554
4 1   14.658   -4.189   14.663
5 1    2.168    5.077    9.731
6 1   -3.566   -7.883   -2.326
7 1   -8.475  -17.483    8.081
8 1   12.398    5.606   -5.428
9 1   -4.841   13.198   14.455
10 1    0.518   16.287   -3.660
11 1   -0.242   -8.266  -15.554
ITEM: TIMESTEP
1
ITEM: NUMBER OF ATOMS
11
ITEM: BOX BOUNDS xy xz yz pp pp pp
-6.689981697098137 -4.275768134725042 0.7071067811865476
-11.217916129467893 -10.217916129467893 0.7071067811865476
-22.75940037178957 -22.115806118883988 0.2928932188134524
ITEM: ATOMS id type xu yu zu
1 1   -4.019   -6.089   -0.662
2 1   11.522   -0.073    6.946
3 1   -2.857    6.386   11.126
4 1    3.148   17.659    9.336
5 1   -0.654    5.040  -22.759
6 1   -6.690   17.481   11.765
7 1   17.284    8.398   -0.923
8 1    1.912    1.087   -3.230
9 1    7.033   -3.681    1.586
10 1    6.502   -8.693   -8.286
11 1   10.204  -11.218   -5.572
ITEM: TIMESTEP
2
ITEM: NUMBER OF ATOMS
11
ITEM: BOX BOUNDS xy xz yz pp pp pp
-16.685350416634805 -14.271136854261709 0.7071067811865476
-10.39232500708634 -9.39232500708634 0.7071067811865476
-8.927509756132576 -8.283915503226993 0.2928932188134524
ITEM: ATOMS id type xu yu zu
1 1    7.439   -1.081   -5.476
2 1  -16.685   11.561   -1.134
3 1   -0.161    3.499   14.889
4 1    1.937   -3.455    3.070
5 1   12.968  -10.392   -1.924
6 1  -13.460    0.814   16.592
7 1   -7.698    0.264    5.216
8 1    4.191   12.941   -4.386
9 1   -6.320   -7.299    1.825
10 1   -3.329   -1.920   -8.928
11 1   24.651    1.328   -1.973
ITEM: TIMESTEP
3
ITEM: NUMBER OF ATOMS
11
ITEM: BOX BOUNDS xy xz yz pp pp pp
-18.310914278455893 -15.896700716082798 0.7071067811865476
-11.417076378261626 -10.417076378261626 0.7071067811865476
-12.27691217669484 -11.633317923789257 0.2928932188134524
ITEM: ATOMS id type xu yu zu
1 1   26.651    4.445   -4.956
2 1    5.512   10.883    2.094
3 1  -10.310   -9.737   -8.864
4 1   15.561   13.987  -12.277
5 1  -18.311  -11.417   -4.356
6 1   -0.571   -5.161   -4.882
7 1   10.407   -3.932   -8.988
8 1    5.068   -1.114   -9.380
9 1   17.217   11.061   10.243
10 1   -6.726   -8.315   -4.652
11 1    4.720   -4.274    2.712
ITEM: TIMESTEP
4
ITEM: NUMBER OF ATOMS
11
ITEM: BOX BOUNDS xy xz yz pp pp pp
-25.991117832307168 -23.576904269934072 0.7071067811865476
-16.546361170327156 -15.546361170327156 0.7071067811865476
-14.157834544758103 -13.51424029185252 0.2928932188134524
ITEM: ATOMS id type xu yu zu
1 1   -6.306   11.964    2.308
2 1    9.991   -0.341   -7.981
3 1  -15.137    1.062   -0.932
4 1   -7.056    4.854   -7.431
5 1    0.128    1.058    1.867
6 1    6.525  -16.546  -14.158
7 1   -3.452    6.357   -0.571
8 1  -25.991   -5.872   -0.269
9 1   -4.661    1.473   20.519
10 1  -20.476  -10.325   -8.634
11 1   -4.324    0.308    4.350
ITEM: TIMESTEP
5
ITEM: NUMBER OF ATOMS
11
ITEM: BOX BOUNDS xy xz yz pp pp pp
-19.09442558625485 -16.680212023881754 0.7071067811865476
-8.924103376378994 -7.924103376378994 0.7071067811865476
-22.03344588726255 -21.389851634356965 0.2928932188134524
ITEM: ATOMS id type xu yu zu
1 1   -3.299    5.120   -6.003
2 1  -19.094   18.816   18.572
3 1    4.294    2.927   -8.174
4 1  -10.946   -2.914    1.659
5 1   -9.979   -2.770    0.699
6 1    0.574   13.743   -2.385
7 1   12.452   11.452   16.252
8 1    6.398   -2.339  -22.033
9 1  -18.789   -3.157    6.209
10 1    5.562   -8.924  -12.783
11 1   16.364   -3.668   -9.848
ITEM: TIMESTEP
6
ITEM: NUMBER OF ATOMS
11
ITEM: BOX BOUNDS xy xz yz pp pp pp
-18.21840828937657 -15.804194727003473 0.7071067811865476
-15.9071972628841 -14.9071972628841 0.7071067811865476
-12.877671197674665 -12.234076944769082 0.2928932188134524
ITEM: ATOMS id type xu yu zu
1 1  -18.218    6.574   10.470
2 1    9.814   18.483  -11.917
3 1   11.915   13.894    4.926
4 1    6.274    2.784    9.574
5 1   -4.687   -8.433    7.262
6 1  -11.559   -7.383    1.679
7 1   -2.784  -14.780   -7.328
8 1   -1.360   -9.454  -12.878
9 1   -8.317  -15.907    6.692
10 1   -8.159   10.318  -11.766
11 1   -5.815  -15.313   16.561
ITEM: TIMESTEP
7
ITEM: NUMBER OF ATOMS
11
ITEM: BOX BOUNDS xy xz yz pp pp pp
-20.531756024101497 -18.1175424617284 0.7071067811865476
-14.51929407472016 -13.51929407472016 0.7071067811865476
-18.57848915263635 -17.934894899730768 0.2928932188134524
ITEM: ATOMS id type xu yu zu
1 1   10.701   13.162   12.893
2 1   -4.708   -7.708    5.357
3 1  -19.699    0.479   11.343
4 1    3.917   -8.752   -7.334
5 1    3.649    1.530  -18.578
6 1    6.918   -9.475   12.963
7 1  -20.532    8.167   -4.646
8 1    6.655   13.429    0.124
9 1    0.113   -6.442   13.263
10 1   -7.206   13.164    5.666
11 1    1.383  -14.519    0.158
ITEM: TIMESTEP
8
ITEM: NUMBER OF ATOMS
11
ITEM: BOX BOUNDS xy xz yz pp pp pp
-3.296485459057509 -0.8822718966844139 0.7071067811865476
-12.292464927572338 -11.292464927572338 0.7071067811865476
-18.122455087734693 -17.47886083482911 0.2928932188134524
ITEM: ATOMS id type xu yu zu
1 1   -3.112   12.111   -6.530
2 1    2.677    4.822   11.068
3 1   11.376    6.152  -18.122
4 1    0.327    4.361    6.437
5 1    7.599    0.552  -10.449
6 1    9.747   -1.354   -6.119
7 1   -3.296    0.137   10.103
8 1   -3.074   -0.669    7.862
9 1    5.753  -12.292   14.506
10 1    6.568   14.340   -4.566
11 1    2.462   -3.970    0.262
ITEM: TIMESTEP
9
ITEM: NUMBER OF ATOMS
11
ITEM: BOX BOUNDS xy xz yz pp pp pp
-13.91411339659083 -11.499899834217734 0.7071067811865476
-7.249778105086832 -6.249778105086833 0.7071067811865476
-12.054937863355217 -11.411343610449634 0.2928932188134524
ITEM: ATOMS id type xu yu zu
1 1   -5.391   -7.250    1.523
2 1   17.024   -3.493    9.656
3 1    6.306    0.546   -2.061
4 1   10.345    5.298   15.028
5 1  -10.711    0.359   -9.431
6 1   -8.054   -6.793   -8.547
7 1  -13.914    6.611  -11.789
8 1   16.265   -6.893  -12.055
9 1   12.751    6.182  -11.392
10 1   -9.186   16.897  -11.288
11 1   -3.140   -2.645   12.316
ITEM: TIMESTEP
10
ITEM: NUMBER OF ATOMS
11
ITEM: BOX BOUNDS xy xz yz pp pp pp
-13.303803861378736 -10.88959029900564 0.7071067811865476
-5.127342691179022 -4.127342691179022 0.7071067811865476
-21.982864571190213 -21.33927031828463 0.2928932188134524
ITEM: ATOMS id type xu yu zu
1 1   11.992    1.814   -9.695
2 1   -0.401    7.323   -6.489
3 1   13.399   -0.399   10.128
4 1    4.615    1.966    1.836
5 1   -2.664    0.837   20.171
6 1   14.115   -2.579   -6.351
7 1  -13.304   11.211  -21.983
8 1    3.831   -5.127    0.047
9 1   -1.621   12.017    1.768
10 1    8.333    9.162   -4.401
11 1   14.773   -2.859    7.998
ITEM: TIMESTEP
11
ITEM: NUMBER OF ATOMS
11
ITEM: BOX BOUNDS xy xz yz pp pp pp
-8.30565021485155 -5.891436652478455 0.7071067811865476
-11.356059698307515 -10.356059698307515 0.7071067811865476
-14.762532471278572 -14.118938218372989 0.2928932188134524
ITEM: ATOMS id type xu yu zu
1 1   11.377    6.972    3.998
2 1    4.729    7.699   -3.269
3 1    1.768   14.317   -8.287
4 1   -6.181   11.268   -8.267
5 1   14.978    1.176    2.252
6 1    0.465   12.107  -10.675
7 1   -8.306    1.800    5.916
8 1   -4.914    4.536    7.412
9 1   10.986  -11.356   -9.116
10 1   -3.559    7.068   -0.448
11 1    8.652   11.369  -14.763
ITEM: TIMESTEP
12
ITEM: NUMBER OF ATOMS
11
ITEM: BOX BOUNDS xy xz yz pp pp pp
-20.196595850898053 -17.782382288524957 0.7071067811865476
-17.402433500827232 -16.402433500827232 0.7071067811865476
-23.57919534097992 -22.935601088074336 0.2928932188134524
ITEM: ATOMS id type xu yu zu
1 1    1.804   -2.525  -23.579
2 1    4.663   14.204   -2.424
3 1   -6.135   10.888    1.209
4 1    3.979    2.847   16.291
5 1  -14.760   14.574    2.860
6 1   17.155    2.287    7.243
7 1    7.965   -1.246    2.669
8 1    6.939    5.131    0.484
9 1  -20.197   -0.587    2.492
10 1   -7.614  -17.402    5.445
11 1    0.125    2.547    6.779
ITEM: TIMESTEP
13
ITEM: NUMBER OF ATOMS
11
ITEM: BOX BOUNDS xy xz yz pp pp pp
-15.62079294477605 -13.206579382402953 0.7071067811865476
-12.573864234320336 -11.573864234320336 0.7071067811865476
-17.40973776374306 -16.766143510837477 0.2928932188134524
ITEM: ATOMS id type xu yu zu
1 1   -2.095   -2.908    0.830
2 1   -4.238   -2.055   -2.859
3 1    1.083   17.264  -17.410
4 1   -4.146   17.361    7.008
5 1    7.048  -12.574   -3.369
6 1    5.503   -5.390  -13.601
7 1   10.256   18.290    3.297
8 1    6.507   31.406    8.520
9 1   -6.934    8.491    4.494
10 1    1.569    2.795    1.021
11 1  -15.621   10.508    1.364
ITEM: TIMESTEP
14
ITEM: NUMBER OF ATOMS
11
ITEM: BOX BOUNDS xy xz yz pp pp pp
-8.331629917337004 -5.917416354963909 0.7071067811865476
-11.12915108692979 -10.12915108692979 0.7071067811865476
-11.121318170117224 -10.477723917211641 0.2928932188134524
ITEM: ATOMS id type xu yu zu
1 1   -2.439   11.424  -11.121
2 1   -3.566   14.316    0.955
3 1    2.204   11.287    3.825
4 1   -4.511   15.301   -6.080
5 1   -8.332    6.228    0.270
6 1   -8.041  -11.129   -6.466
7 1   -0.796    5.799    2.079
8 1    1.552   13.201    1.857
9 1    5.129   -7.273   -8.955
10 1    3.135   -1.620   13.650
11 1   -6.625    1.570    1.888
ITEM: TIMESTEP
15
ITEM: NUMBER OF ATOMS
11
ITEM: BOX BOUNDS xy xz yz pp pp pp
-15.034142312108884 -12.619928749735788 0.7071067811865476
-19.418056918650482 -18.418056918650482 0.7071067811865476
-8.410363443175484 -7.766769190269901 0.2928932188134524
ITEM: ATOMS id type xu yu zu
1 1  -10.372  -14.622    2.103
2 1    7.467   11.386   -8.410
3 1    4.329   13.756   16.034
4 1   13.145  -11.878    1.107
5 1    2.674  -19.418    9.053
6 1   11.606  -13.627    1.876
7 1   -8.120    6.046    3.416
8 1  -15.034   -9.739   24.883
9 1   15.030    5.706    8.251
10 1   -4.868   -6.163   -7.130
11 1   -4.159    5.073   -4.525
ITEM: TIMESTEP
16
ITEM: NUMBER OF ATOMS
11
ITEM: BOX BOUNDS xy xz yz pp pp pp
-21.892007983056217 -19.47779442068312 0.7071067811865476
-16.34730732007546 -15.347307320075458 0.7071067811865476
-11.862861639665692 -11.219267386760109 0.2928932188134524
ITEM: ATOMS id type xu yu zu
1 1   -0.829  -16.347   -1.711
2 1    7.634    2.469   -3.708
3 1   11.875  -15.027  -11.863
4 1  -21.892    0.037   18.492
5 1   -4.472    8.986    4.245
6 1   24.224    0.872   25.443
7 1   17.122   -5.161    6.004
8 1   -4.964   -0.774    4.358
9 1    8.607   -6.535   -1.563
10 1   -7.893  -11.124    2.271
11 1   -2.078    2.291    3.087
ITEM: TIMESTEP
17
ITEM: NUMBER OF ATOMS
11
ITEM: BOX BOUNDS xy xz yz pp pp pp
-17.72105174773235 -15.306838185359254 0.7071067811865476
-16.383851217899466 -15.383851217899466 0.7071067811865476
-26.829279899433487 -26.185685646527904 0.2928932188134524
ITEM: ATOMS id type xu yu zu
1 1   13.072    9.425   -6.954
2 1   16.485  -16.384  -10.161
3 1  -13.396   -1.749    7.794
4 1  -10.441   20.144  -13.837
5 1   -0.517    6.416   -9.518
6 1   -4.208   -0.138    6.286
7 1   -4.543    1.020   -1.484
8 1   -4.082    2.121    5.268
9 1  -12.136    9.039  -16.245
10 1  -12.198    9.818  -26.829
11 1  -17.721    7.960   10.118
ITEM: TIMESTEP
18
ITEM: NUMBER OF ATOMS
11
ITEM: BOX BOUNDS xy xz yz pp pp pp
-11.998815526441868 -9.584601964068773 0.7071067811865476
-17.918934864031296 -16.918934864031296 0.7071067811865476
-12.06930588304856 -11.425711630142978 0.2928932188134524
ITEM: ATOMS id type xu yu zu
1 1   -9.332   -5.805   -3.771
2 1    2.777   22.044   -1.452
3 1   -4.505   10.953   -7.509
4 1   10.430    7.744  -12.069
5 1   -5.252    3.803   -4.519
6 1    3.861  -13.552   -3.377
7 1   -3.464   -9.594    3.178
8 1   -1.832   -7.916    7.840
9 1   -7.797  -17.919   -5.780
10 1  -11.999  -10.608   16.200
11 1   14.046   -2.843    6.387
ITEM: TIMESTEP
19
ITEM: NUMBER OF ATOMS
11
ITEM: BOX BOUNDS xy xz yz pp pp pp
-13.154452887190576 -10.74023932481748 0.7071067811865476
-19.562622915134664 -18.562622915134664 0.7071067811865476
-24.875717725047984 -24.2321234721424 0.2928932188134524
ITEM: ATOMS id type xu yu zu
1 1  -13.154   -1.352    6.138
2 1   -6.113    2.314    5.637
3 1    0.648  -19.563   19.637
4 1    8.875    4.984  -24.876
5 1   -9.929    7.699   -8.741
6 1   -0.944    2.135  -11.254
7 1   -0.288   -0.855    5.857
8 1   -9.759  -19.068   -5.378
9 1  -11.645    2.996  -11.400
10 1  -10.043    4.725  -12.186
11 1   17.375   -0.654   -5.582
ITEM: TIMESTEP
20
ITEM: NUMBER OF ATOMS
11
ITEM: BOX BOUNDS xy xz yz pp pp pp
-22.35402378615482 -19.939810223781723 0.7071067811865476
-26.710371726318492 -25.710371726318492 0.7071067811865476
-16.156094822444885 -15.512500569539302 0.2928932188134524
ITEM: ATOMS id type xu yu zu
1 1   -8.441   10.983   -1.904
2 1   -6.044   -2.979   -6.525
3 1   -1.103   14.840   -1.842
4 1   12.701    4.263   -7.705
5 1   -8.598    5.913   12.021
6 1    5.931    7.271  -16.156
7 1  -22.354  -26.710   -7.491
8 1  -16.075    2.077   -1.571
9 1   -9.146   -7.923   19.699
10 1   -2.772   -5.796   -1.760
11 1  -10.686  -12.788   -3.075
ITEM: TIMESTEP
21
ITEM: NUMBER OF ATOMS
11
ITEM: BOX BOUNDS xy xz yz pp pp pp
-7.822995001405314 -5.408781439032219 0.7071067811865476
-16.894453872507484 -15.894453872507485 0.7071067811865476
-13.461442549890723 -12.81784829698514 0.2928932188134524
ITEM: ATOMS id type xu yu zu
1 1   11.976   -1.086    4.133
2 1   -1.853   12.508   13.710
3 1    5.140   -6.335  -11.892
4 1    2.633   22.810   30.086
5 1   -4.459  -16.894   -0.794
6 1   -7.823   -3.262    0.811
7 1    0.763   -3.338   -1.093
8 1    0.666   19.502  -11.788
9 1   11.639   -5.324  -13.461
10 1    1.067    8.305   -3.958
11 1   14.109    2.268   -5.107
ITEM: TIMESTEP
22
ITEM: NUMBER OF ATOMS
11
ITEM: BOX BOUNDS xy xz yz pp pp pp
-21.621356387708826 -19.20714282533573 0.7071067811865476
-11.182534118912795 -10.182534118912795 0.7071067811865476
-13.067779676166216 -12.424185423260633 0.2928932188134524
ITEM: ATOMS id type xu yu zu
1 1  -16.500   14.871    6.315
2 1    7.461   -2.166    6.055
3 1   -6.208    8.758   -9.400
4 1  -21.621   -3.182   -1.619
5 1    5.587    1.559    4.249
6 1   11.464  -11.183   -3.142
7 1   10.729    8.298    7.832
8 1  -14.133   -2.162   14.049
9 1   -0.342    1.334   -5.310
10 1  -12.843    1.448  -13.068
11 1   26.329  -10.219    2.382
ITEM: TIMESTEP
23
ITEM: NUMBER OF ATOMS
11
ITEM: BOX BOUNDS xy xz yz pp pp pp
-22.217279660196972 -19.803066097823876 0.7071067811865476
-20.59617668963086 -19.59617668963086 0.7071067811865476
-19.738281905365472 -19.09468765245989 0.2928932188134524
ITEM: ATOMS id type xu yu zu
1 1    9.254    1.466    8.754
2 1    2.722   -1.117  -10.762
3 1   -5.235    7.396   -4.111
4 1    4.119   -9.730   10.683
5 1    9.354   -4.770  -19.738
6 1    3.762   -1.129   20.019
7 1  -19.845   -7.492    6.361
8 1   -1.764  -20.596   -2.729
9 1   12.266   -2.349    7.381
10 1   12.137    1.491    5.979
11 1  -22.217   -3.008   13.191
ITEM: TIMESTEP
24
ITEM: NUMBER OF ATOMS
11
ITEM: BOX BOUNDS xy xz yz pp pp pp
-20.980136084847327 -18.56592252247423 0.7071067811865476
-15.092223530512094 -14.092223530512094 0.7071067811865476
-12.087093978454133 -11.44349972554855 0.2928932188134524
ITEM: ATOMS id type xu yu zu
1 1  -20.980   -6.226    3.703
2 1    0.316   14.086    0.728
3 1   -3.853  -15.092  -10.277
4 1    3.366    1.054  -12.087
5 1   11.914   -4.008    5.810
6 1  -13.004   -5.013   -4.237
7 1   -2.193  -13.882  -10.890
8 1   -1.951   13.638  -10.581
9 1   -1.776   -0.545   -7.691
10 1  -14.499   16.157   -2.639
11 1    5.795    0.561    4.088
ITEM: TIMESTEP
25
ITEM: NUMBER OF ATOMS
11
ITEM: BOX BOUNDS xy xz yz pp pp pp
-16.5678668978595 -14.153653335486403 0.7071067811865476
-14.84091048835289 -13.84091048835289 0.7071067811865476
-18.75553559840536 -18.111941345499776 0.2928932188134524
ITEM: ATOMS id type xu yu zu
1 1  -12.340   -9.162  -18.756
2 1  -15.919    6.076    0.439
3 1  -15.561   -9.898  -12.671
4 1   15.676   -7.598    4.551
5 1   -6.154  -14.841   19.055
6 1   12.225   -8.424    1.061
7 1    8.172   -0.765    2.125
8 1   22.446    8.979  -17.332
9 1    5.235   23.802  -10.828
10 1  -16.568   -3.271   10.708
11 1   -4.448   13.848   -5.250
ITEM: TIMESTEP
26
ITEM: NUMBER OF ATOMS
11
ITEM: BOX BOUNDS xy xz yz pp pp pp
-9.7429624093534 -7.328748846980305 0.7071067811865476
-8.968430165214418 -7.968430165214418 0.7071067811865476
-24.641640253801004 -23.99804600089542 0.2928932188134524
ITEM: ATOMS id type xu yu zu
1 1   -4.860   12.372    9.114
2 1   -0.480   15.105    3.708
3 1   -9.743    1.800   -7.364
4 1   -4.485    1.005    8.013
5 1    7.491    1.656   19.355
6 1   13.137   -8.968    7.731
7 1    6.789   -4.897  -17.745
8 1    8.227    5.498  -24.642
9 1   11.385   18.267    4.880
10 1    2.106   -7.505  -11.978
11 1   -6.486   -2.515    9.409
ITEM: TIMESTEP
27
ITEM: NUMBER OF ATOMS
11
ITEM: BOX BOUNDS xy xz yz pp pp pp
-12.894101362593 -10.479887800219904 0.7071067811865476
-24.207373569265048 -23.207373569265048 0.7071067811865476
-15.221408265644014 -14.57781401273843 0.2928932188134524
ITEM: ATOMS id type xu yu zu
1 1    0.180    6.149  -15.221
2 1    6.537   11.008    4.316
3 1  -10.679  -10.675    8.473
4 1  -12.894    2.605    8.671
5 1   -9.674   -2.030   11.561
6 1    4.570   15.847   -9.411
7 1   -3.477   -9.683   -1.719
8 1   14.448  -24.207    8.366
9 1  -10.507    3.203    6.060
10 1   10.299    2.423  -11.956
11 1    3.405  -13.969   -5.229
ITEM: TIMESTEP
28
ITEM: NUMBER OF ATOMS
11
ITEM: BOX BOUNDS xy xz yz pp pp pp
-32.238387350695604 -29.824173788322508 0.7071067811865476
-14.076544358941025 -13.076544358941025 0.7071067811865476
-11.164647275111875 -10.521053022206292 0.2928932188134524
ITEM: ATOMS id type xu yu zu
1 1    1.858    1.591   16.269
2 1   -3.177   -7.723    8.435
3 1   -2.916   -6.491  -11.165
4 1   -9.706    0.360    3.068
5 1   -9.263    6.518   -9.238
6 1   -2.018   11.196  -11.139
7 1  -17.573    1.418    0.630
8 1   -5.044   -1.329   -4.775
9 1   -4.440   -6.952   -0.736
10 1  -32.238   -2.890    1.494
11 1   -2.710  -14.077    4.421
ITEM: TIMESTEP
29
ITEM: NUMBER OF ATOMS
11
ITEM: BOX BOUNDS xy xz yz pp pp pp
-12.085475782066945 -9.67126221969385 0.7071067811865476
-27.76437023091072 -26.76437023091072 0.7071067811865476
-14.808797550333011 -14.165203297427428 0.2928932188134524
ITEM: ATOMS id type xu yu zu
1 1   -1.454   -9.289   -4.294
2 1    3.304    1.172    0.998
3 1   -4.548   20.143    0.975
4 1    1.203    4.635    7.151
5 1   -9.089  -27.764    1.113
6 1    8.982    6.840  -14.809
7 1   -1.599   -2.848   -9.605
8 1    2.903    0.038   -4.119
9 1  -12.085    6.408  -12.937
10 1    5.266  -21.127    0.781
11 1   -9.867   13.972    4.321
ITEM: TIMESTEP
30
ITEM: NUMBER OF ATOMS
11
ITEM: BOX BOUNDS xy xz yz pp pp pp
-22.335100765805763 -19.920887203432667 0.7071067811865476
-12.54558441717137 -11.54558441717137 0.7071067811865476
-21.25110279059325 -20.607508537687668 0.2928932188134524
ITEM: ATOMS id type xu yu zu
1 1   -4.122   -3.227    5.225
2 1   -3.419   -2.950    0.393
3 1   11.140   -1.514    2.863
4 1  -22.335    0.799    1.424
5 1   -9.912  -12.546   -6.509
6 1  -22.235    6.961  -11.899
7 1   -1.514   -1.663   -0.652
8 1    0.012    8.367  -21.251
9 1   14.416   12.646   -7.467
10 1   20.386    0.004   11.978
11 1   -5.380   -8.981  -16.657
ITEM: TIMESTEP
31
ITEM: NUMBER OF ATOMS
11
ITEM: BOX BOUNDS xy xz yz pp pp pp
-16.760798285719517 -14.346584723346421 0.7071067811865476
-7.750014450932464 -6.750014450932465 0.7071067811865476
-7.958817040611858 -7.315222787706275 0.2928932188134524
ITEM: ATOMS id type xu yu zu
1 1   -8.106    9.166    3.314
2 1  -11.515    9.862   10.067
3 1   -2.508    6.937    6.331
4 1    3.946   -7.750   -3.595
5 1   -0.172    9.110    2.065
6 1   -4.752   -7.406    5.469
7 1    1.982    1.666   -7.959
8 1   11.146   14.616   10.304
9 1  -16.761    7.619   -7.873
10 1   -2.433    3.926   -5.723
11 1   -3.826   -0.358   18.484
ITEM: TIMESTEP
32
ITEM: NUMBER OF ATOMS
11
ITEM: BOX BOUNDS xy xz yz pp pp pp
-23.50262527328553 -21.088411710912435 0.7071067811865476
-22.600416218898452 -21.600416218898452 0.7071067811865476
-15.512189733604135 -14.868595480698552 0.2928932188134524
ITEM: ATOMS id type xu yu zu
1 1    6.584   -1.650   -3.607
2 1   10.399    3.300    3.206
3 1  -12.568   -5.854    8.177
4 1  -10.253    9.402  -12.695
5 1    2.775   -5.759  -15.512
6 1  -23.503   -0.960   24.586
7 1    2.150    0.571   -3.382
8 1    4.043  -10.823  -15.230
9 1    3.806   11.118   -1.826
10 1   -0.495  -22.600   -3.777
11 1   -3.550  -16.247    8.411
ITEM: TIMESTEP
33
ITEM: NUMBER OF ATOMS
11
ITEM: BOX BOUNDS xy xz yz pp pp pp
-22.774157214202567 -20.35994365182947 0.7071067811865476
-11.690536660893237 -10.690536660893237 0.7071067811865476
-8.704350260865537 -8.060756007959954 0.2928932188134524
ITEM: ATOMS id type xu yu zu
1 1  -10.459   12.556    6.551
2 1   19.881  -10.872    5.299
3 1  -22.774    1.797   -5.379
4 1   -5.472  -11.691   -8.704
5 1    2.938  -10.500    3.723
6 1   -3.792   -8.244   -7.657
7 1   -1.248   -9.853    6.362
8 1    4.461   13.480   -6.844
9 1   11.291   -4.200    4.237
10 1  -21.014   12.903   -8.039
11 1   -7.999   11.706    1.398
ITEM: TIMESTEP
34
ITEM: NUMBER OF ATOMS
11
ITEM: BOX BOUNDS xy xz yz pp pp pp
-18.896096173692033 -16.481882611318937 0.7071067811865476
-19.12633346310194 -18.12633346310194 0.7071067811865476
-19.64305523571256 -18.999460982806976 0.2928932188134524
ITEM: ATOMS id type xu yu zu
1 1   10.478    6.601   14.972
2 1    0.182   -2.543   -8.237
3 1    2.516   13.042    5.124
4 1    4.553   -4.479   -9.647
5 1    2.627    2.163    4.048
6 1  -18.896   12.482  -13.304
7 1   13.672    6.611   -1.413
8 1   -7.845  -19.126    6.307
9 1  -12.411    6.942  -14.828
10 1    4.673   -6.367  -18.625
11 1    0.936   24.310  -19.643
ITEM: TIMESTEP
35
ITEM: NUMBER OF ATOMS
11
ITEM: BOX BOUNDS xy xz yz pp pp pp
-14.136688147642534 -11.722474585269438 0.7071067811865476
-19.82946326365446 -18.82946326365446 0.7071067811865476
-14.66822385240842 -14.024629599502838 0.2928932188134524
ITEM: ATOMS id type xu yu zu
1 1   -3.809    4.122    0.784
2 1   22.337   -1.028   -1.628
3 1  -14.137  -14.373   15.053
4 1   -8.512   -8.964    5.074
5 1  -13.988   16.447  -14.668
6 1   -5.247    0.829   -0.032
7 1   -2.235   -8.906    7.684
8 1    4.674  -19.829   12.786
9 1   -0.772  -14.034  -14.157
10 1   20.163   -4.817   -8.713
11 1   -2.962   -1.785  -11.642
ITEM: TIMESTEP
36
ITEM: NUMBER OF ATOMS
11
ITEM: BOX BOUNDS xy xz yz pp pp pp
-12.448256304784287 -10.034042742411192 0.7071067811865476
-12.262843687985072 -11.262843687985072 0.7071067811865476
-13.92712865952797 -13.283534406622387 0.2928932188134524
ITEM: ATOMS id type xu yu zu
1 1   -5.481  -12.263   -0.814
2 1    6.156   11.282   16.499
3 1  -12.448   -5.713  -11.029
4 1   18.360    6.188    2.361
5 1   -8.864    9.117  -13.927
6 1    7.989   -1.891   -2.193
7 1   -6.098    4.966   -0.542
8 1    1.610   10.283   -8.024
9 1   -5.128   -1.532   -2.005
10 1   -8.473   14.918    2.159
11 1   -7.202  -10.286    2.031
ITEM: TIMESTEP
37
ITEM: NUMBER OF ATOMS
11
ITEM: BOX BOUNDS xy xz yz pp pp pp
-22.40804496369873 -19.993831401325632 0.7071067811865476
-20.590907373704923 -19.590907373704923 0.7071067811865476
-9.272106090153576 -8.628511837247993 0.2928932188134524
ITEM: ATOMS id type xu yu zu
1 1   -2.964   -1.694    5.768
2 1    2.051    8.322   -9.272
3 1   10.406    8.186    8.321
4 1   10.987  -17.581   -0.541
5 1    3.064  -20.591   -5.806
6 1   -0.260   -6.412    2.312
7 1    5.395   -1.323   -5.376
8 1   -2.717    4.335    5.526
9 1  -22.408  -13.736   13.664
10 1   10.292    1.195    0.021
11 1   -5.466   17.205    2.405
ITEM: TIMESTEP
38
ITEM: NUMBER OF ATOMS
11
ITEM: BOX BOUNDS xy xz yz pp pp pp
-25.40062925965547 -22.986415697282375 0.7071067811865476
-16.625943424479416 -15.625943424479416 0.7071067811865476
-3.893835016210917 -3.2502407633053347 0.2928932188134524
ITEM: ATOMS id type xu yu zu
1 1   -3.487    0.352   10.088
2 1   -5.348   -3.032   -1.129
3 1  -13.323   -0.902   11.754
4 1    4.778   -3.980   -0.284
5 1  -11.186    3.200    0.557
6 1  -15.445  -16.626   -3.894
7 1    8.229   11.703    5.392
8 1    1.121  -13.967    4.586
9 1   -1.670   -9.492   -1.595
10 1  -25.401   -4.747    1.247
11 1  -17.817    5.204    8.876
ITEM: TIMESTEP
39
ITEM: NUMBER OF ATOMS
11
ITEM: BOX BOUNDS xy xz yz pp pp pp
-7.415854769072503 -5.001641206699408 0.7071067811865476
-11.485298667073572 -10.485298667073572 0.7071067811865476
-13.722759222423695 -13.079164969518112 0.2928932188134524
ITEM: ATOMS id type xu yu zu
1 1   -1.174  -11.485   -1.135
2 1    4.870   -3.789   12.566
3 1   14.546    7.833    9.114
4 1    8.820   -0.732  -13.723
5 1   -7.416    4.898   -0.573
6 1   25.814   15.549    4.442
7 1   -0.710    0.865    7.953
8 1   14.681   21.750   -6.350
9 1   13.396   -4.634   -0.281
10 1    3.092   12.059    6.724
11 1   -7.133   -6.500    8.268
ITEM: TIMESTEP
40
ITEM: NUMBER OF ATOMS
11
ITEM: BOX BOUNDS xy xz yz pp pp pp
-17.445643814754412 -15.031430252381316 0.7071067811865476
-12.95351204786776 -11.95351204786776 0.7071067811865476
-10.342920431299705 -9.699326178394122 0.2928932188134524
ITEM: ATOMS id type xu yu zu
1 1    5.203    2.598   -6.629
2 1  -14.954   -9.980  -10.343
3 1   -3.097    9.662   -7.039
4 1   27.750   -2.632   -0.970
5 1   -3.040   -5.799    1.623
6 1    2.078    3.615   -7.417
7 1  -17.446    0.512   -9.972
8 1  -11.039  -12.954   -3.532
9 1   -1.923    4.216   17.586
10 1  -13.169    8.365    1.587
11 1    3.349    3.205  -10.116
ITEM: TIMESTEP
41
ITEM: NUMBER OF ATOMS
11
ITEM: BOX BOUNDS xy xz yz pp pp pp
-7.804547972081215 -5.39033440970812 0.7071067811865476
-13.169819805751725 -12.169819805751725 0.7071067811865476
-22.86773792437826 -22.224143671472678 0.2928932188134524
ITEM: ATOMS id type xu yu zu
1 1    2.141    1.559   -0.548
2 1   24.002    4.569    3.253
3 1   14.724   -7.089   10.791
4 1   14.509    0.600   -2.628
5 1   -4.241   -2.489    3.517
6 1   -1.647    4.732   -3.100
7 1    7.264   -1.386  -14.170
8 1   -7.805   11.963    3.200
9 1   -7.655  -13.170   -3.154
10 1   -1.901    5.420  -22.868
11 1    7.949    3.982   -0.559
ITEM: TIMESTEP
42
ITEM: NUMBER OF ATOMS
11
ITEM: BOX BOUNDS xy xz yz pp pp pp
-16.740880744157195 -14.3266671817841 0.7071067811865476
-14.151345055210902 -13.151345055210902 0.7071067811865476
-16.133919688670076 -15.490325435764493 0.2928932188134524
ITEM: ATOMS id type xu yu zu
1 1   -2.989   -0.234   -2.418
2 1    0.087    9.043   10.765
3 1   10.420   10.050    6.532
4 1  -16.423   -8.943    6.919
5 1  -16.741   12.437  -13.787
6 1  -10.919  -14.151  -16.134
7 1   -8.496   -6.739   -3.627
8 1   -9.777   14.433  -14.872
9 1    0.899    4.047   -1.238
10 1    4.232    5.161   12.613
11 1   -2.463    9.064  -13.406
ITEM: TIMESTEP
43
ITEM: NUMBER OF ATOMS
11
ITEM: BOX BOUNDS xy xz yz pp pp pp
-20.032855048771474 -17.618641486398378 0.7071067811865476
-11.57132169774451 -10.57132169774451 0.7071067811865476
-15.620258459338615 -14.976664206433032 0.2928932188134524
ITEM: ATOMS id type xu yu zu
1 1   14.540   11.910  -15.620
2 1    0.148    9.971   -9.302
3 1  -20.033   -8.764   12.205
4 1    0.518   -0.485  -12.852
5 1  -17.140   11.543    7.280
6 1  -13.025   10.799    4.340
7 1    0.649   -9.756   -2.623
8 1    6.746   12.321    1.132
9 1   11.357  -11.571   -1.507
10 1    8.843   -7.215    3.841
11 1   -5.902  -10.123   14.603
ITEM: TIMESTEP
44
ITEM: NUMBER OF ATOMS
11
ITEM: BOX BOUNDS xy xz yz pp pp pp
-10.31416729135336 -7.8999537289802655 0.7071067811865476
-18.04210274736559 -17.04210274736559 0.7071067811865476
-6.519992599901179 -5.876398346995596 0.2928932188134524
ITEM: ATOMS id type xu yu zu
1 1    6.057   -9.084   -4.072
2 1   -1.125   -0.546    9.833
3 1   -5.520  -18.042   -0.455
4 1   12.694  -14.757   -6.520
5 1   11.198   -1.939   -1.312
6 1   16.094  -16.849   -5.100
7 1   10.956    0.568   -3.336
8 1   -3.411    5.120   20.344
9 1    4.038   15.882    8.835
10 1  -10.314  -11.750    6.091
11 1   17.521    1.533    6.257
ITEM: TIMESTEP
45
ITEM: NUMBER OF ATOMS
11
ITEM: BOX BOUNDS xy xz yz pp pp pp
-15.065015799600925 -12.650802237227829 0.7071067811865476
-29.545596903954873 -28.545596903954873 0.7071067811865476
-10.114656489051288 -9.471062236145706 0.2928932188134524
ITEM: ATOMS id type xu yu zu
1 1    1.483   18.934   -2.684
2 1   13.790  -29.546   -2.245
3 1  -11.981   -1.112    1.424
4 1   -3.235   14.505  -10.115
5 1   19.399    6.941    8.064
6 1    6.449   -0.870    0.340
7 1  -15.065    3.579   13.180
8 1   12.340   -6.698   26.759
9 1   12.575   -7.064   10.373
10 1    2.521   -1.856    4.771
11 1   -3.634    4.232    6.347
ITEM: TIMESTEP
46
ITEM: NUMBER OF ATOMS
11
ITEM: BOX BOUNDS xy xz yz pp pp pp
-7.7493509860910095 -5.3351374237179146 0.7071067811865476
-10.248006817888466 -9.248006817888466 0.7071067811865476
-23.451914079904384 -22.8083198269988 0.2928932188134524
ITEM: ATOMS id type xu yu zu
1 1   -2.643   11.118   13.087
2 1   -1.778    7.294    6.630
3 1    7.302   -0.653    4.779
4 1   -1.777   -5.589   11.354
5 1   -7.749   -4.769    9.084
6 1   10.476    1.322    5.745
7 1   -2.256   18.331   -0.704
8 1   -0.583    1.964  -13.020
9 1    2.367  -10.248  -14.471
10 1    6.230    4.283    2.126
11 1    2.436    4.900  -23.452
ITEM: TIMESTEP
47
ITEM: NUMBER OF ATOMS
11
ITEM: BOX BOUNDS xy xz yz pp pp pp
-11.394751821241824 -8.980538258868728 0.7071067811865476
-9.758725859385391 -8.758725859385391 0.7071067811865476
-23.862609225563396 -23.219014972657813 0.2928932188134524
ITEM: ATOMS id type xu yu zu
1 1  -11.322   21.289   -2.640
2 1   -4.521   -9.358  -13.734
3 1    1.022    3.232   -8.629
4 1   17.372   15.385   13.324
5 1   -4.249   -9.511    2.054
6 1   -4.808    2.510  -16.926
7 1   -5.386   -5.462    4.379
8 1   -1.883   -9.759  -23.863
9 1   -3.399    8.901    1.180
10 1  -11.395   -1.302  -12.759
11 1    2.057   -2.161   -4.469
ITEM: TIMESTEP
48
ITEM: NUMBER OF ATOMS
11