ITEM: TIMESTEP
0
ITEM: NUMBER OF ATOMS
11
ITEM: BOX BOUNDS xy xz yz pp pp pp
-10.998912673140309 -8.584699110767213 0.7071067811865476
-7.612069008951028 -6.612069008951028 0.7071067811865476
-23.015386968802826 -22.371792715897243 0.2928932188134524
ITEM: ATOMS id type xu yu zu
1 1   16.243   -6.118   -5.282
2 1  -10.730    8.654  -23.015
3 1   17.448   -7.612    3.190
4 1   -2.494   14.621  -20.601
5 1   -3.224   -3.841   11.338
6 1  -10.999   -1.724   -8.779
7 1    0.422    5.828  -11.006
8 1   11.447    9.016    5.025
9 1    9.009   -6.837   -1.229
10 1   -9.358   -2.679    5.304
11 1   -6.917   -3.968   -6.872
ITEM: TIMESTEP
1
ITEM: NUMBER OF ATOMS
11
ITEM: BOX BOUNDS xy xz yz pp pp pp
-11.173103486352778 -8.758889923979682 0.7071067811865476
-11.425181980221401 -10.425181980221401 0.7071067811865476
-8.876289640848363 -8.23269538794278 0.2928932188134524
ITEM: ATOMS id type xu yu zu
1 1   -8.452   -6.712   -0.127
2 1  -11.173    2.344   16.598
3 1    7.420   -1.918   -8.876
4 1   -7.472   16.925    0.508
5 1   -6.370    1.909   21.003
6 1    1.202    6.172    3.002
7 1   -3.522  -11.425   -3.493
8 1   -2.089    5.866    8.390
9 1    9.311    2.856    8.851
10 1   -7.544   12.529    5.129
11 1   -2.981    4.885   -0.756
ITEM: TIMESTEP
2
ITEM: NUMBER OF ATOMS
11
ITEM: BOX BOUNDS xy xz yz pp pp pp
-20.22201215824003 -17.807798595866934 0.7071067811865476
-14.441138054295894 -13.441138054295894 0.7071067811865476
-6.706622862890306 -6.063028609984723 0.2928932188134524
ITEM: ATOMS id type xu yu zu
1 1   11.316   15.198   21.856
2 1  -13.965  -14.441   -5.045
3 1    1.600    8.762    3.156
4 1  -20.222   -3.062    8.280
5 1    2.301    7.620   -2.223
6 1   -2.008    1.866    4.101
7 1    1.983    1.190   -6.707
8 1    3.776    1.218   11.295
9 1   11.989    1.852   -3.753
10 1   -6.387    4.235    0.773
11 1   -3.439    0.436   -6.200
ITEM: TIMESTEP
3
ITEM: NUMBER OF ATOMS
11
ITEM: BOX BOUNDS xy xz yz pp pp pp
-16.157723547032948 -13.743509984659852 0.7071067811865476
-18.579818644467522 -17.579818644467522 0.7071067811865476
-13.731173202467557 -13.087578949561975 0.2928932188134524
ITEM: ATOMS id type xu yu zu
1 1    6.980   -4.471   12.245
2 1    4.035    5.936  -10.949
3 1    1.694    7.406   -9.537
4 1   -2.662    0.326  -13.731
5 1    3.152    8.462   -8.595
6 1    3.505  -13.123   -0.387
7 1  -16.158   11.214    4.089
8 1   -0.246   -7.752   12.738
9 1   19.671  -18.580   12.362
10 1   16.277    3.380  -11.993
11 1    8.633   -1.809   -6.039
ITEM: TIMESTEP
4
ITEM: NUMBER OF ATOMS
11
ITEM: BOX BOUNDS xy xz yz pp pp pp
-12.300581356669618 -9.886367794296522 0.7071067811865476
-24.348377641071387 -23.348377641071387 0.7071067811865476
-11.443413896231426 -10.799819643325844 0.2928932188134524
ITEM: ATOMS id type xu yu zu
1 1  -12.301    5.505    7.928
2 1   -6.235    5.206  -11.443
3 1    8.019    0.466   -1.866
4 1   -1.017    8.689    7.504
5 1    5.295    1.377    0.778
6 1    6.184    2.325    6.826
7 1   -3.101  -24.348   10.388
8 1   21.870    4.414   -1.002
9 1   -1.364   -1.191    0.174
10 1  -11.220   -5.171   -9.970
11 1    2.488   -2.966    4.952
ITEM: TIMESTEP
5
ITEM: NUMBER OF ATOMS
11
ITEM: BOX BOUNDS xy xz yz pp pp pp
-16.274383406162574 -13.860169843789478 0.7071067811865476
-18.963609228910926 -17.963609228910926 0.7071067811865476
-6.4691668825490805 -5.8255726296434975 0.2928932188134524
ITEM: ATOMS id type xu yu zu
1 1   -1.747    9.863    2.135
2 1   21.907  -18.964   -6.469
3 1    9.015   25.283   -2.486
4 1    0.437   -2.263   13.315
5 1   -2.873    6.801   -3.198
6 1  -12.726    3.135    5.032
7 1   12.932   -1.104   -6.174
8 1    5.628    2.407    2.807
9 1   -0.731   11.603    3.695
10 1   19.047   11.111    6.590
11 1  -16.274    6.023    4.203
ITEM: TIMESTEP
6
ITEM: NUMBER OF ATOMS
11
ITEM: BOX BOUNDS xy xz yz pp pp pp
-13.319516665172483 -10.905303102799387 0.7071067811865476
-17.606885603987834 -16.606885603987834 0.7071067811865476
-16.507212658241002 -15.86361840533542 0.2928932188134524
ITEM: ATOMS id type xu yu zu
1 1    8.110   10.444   -4.009
2 1    8.240   -5.623   19.549
3 1  -13.320  -17.607  -16.507
4 1   -8.906  -11.191   19.561
5 1   -3.265  -13.427   11.144
6 1   -5.865  -12.369    8.758
7 1    6.234   -4.350   14.075
8 1    1.291   16.169    5.027
9 1   15.588    1.094  -12.197
10 1   24.494   -5.458   -1.988
11 1   -7.004   -2.034    2.427
ITEM: TIMESTEP
7
ITEM: NUMBER OF ATOMS
11
ITEM: BOX BOUNDS xy xz yz pp pp pp
-27.9308500014654 -25.516636439092306 0.7071067811865476
-16.74195807618932 -15.741958076189322 0.7071067811865476
-11.823181265096336 -11.179587012190753 0.2928932188134524
ITEM: ATOMS id type xu yu zu
1 1    2.018    6.610   17.922
2 1   -1.205  -12.331  -11.823
3 1   -6.658  -16.742    8.250
4 1   -4.982   -3.110   -0.019
5 1  -13.966   -8.613    6.747
6 1    6.185   -4.432   18.105
7 1  -13.057   -3.450   -2.308
8 1  -27.931   19.375    3.663
9 1  -10.446   20.512    5.857
10 1    4.295   -6.070    1.062
11 1  -15.257    7.950   -3.744
ITEM: TIMESTEP
8
ITEM: NUMBER OF ATOMS
11
ITEM: BOX BOUNDS xy xz yz pp pp pp
-14.4087602429184 -11.994546680545303 0.7071067811865476
-8.772815189181882 -7.772815189181882 0.7071067811865476
-8.677872228729257 -8.034277975823674 0.2928932188134524
ITEM: ATOMS id type xu yu zu
1 1    1.340   12.021    2.847
2 1    2.625    2.765   -7.333
3 1    8.360   15.434    7.588
4 1    8.849   -8.773   -8.678
5 1  -14.409   12.323   -2.542
6 1   13.998   -7.819   -4.375
7 1    0.954    9.215    0.608
8 1    2.111    0.165    1.772
9 1  -11.165    0.809   -1.866
10 1   -0.568    4.923   -6.807
11 1   -0.845   -2.974    4.173
ITEM: TIMESTEP
9
ITEM: NUMBER OF ATOMS
11
ITEM: BOX BOUNDS xy xz yz pp pp pp
-8.80577599844171 -6.391562436068615 0.7071067811865476
-14.71156925832625 -13.71156925832625 0.7071067811865476
-8.30171895315114 -7.658124700245557 0.2928932188134524
ITEM: ATOMS id type xu yu zu
1 1    7.848   -9.554    5.859
2 1   20.658  -14.712   -8.302
3 1   -8.806   -2.791   16.228
4 1    0.134   -6.947    6.218
5 1   -5.998   11.234    3.053
6 1   13.888   -6.613   30.309
7 1    8.246    6.546   -0.512
8 1   -7.256   -8.678   -1.360
9 1   -7.973    2.827   -8.261
10 1    6.211    9.561   -7.058
11 1   11.927   -2.379   11.553
ITEM: TIMESTEP
10
ITEM: NUMBER OF ATOMS
11
ITEM: BOX BOUNDS xy xz yz pp pp pp
-21.141639219168262 -18.727425656795166 0.7071067811865476
-19.425891814764555 -18.425891814764555 0.7071067811865476
-25.064406526760614 -24.42081227385503 0.2928932188134524
ITEM: ATOMS id type xu yu zu
1 1    4.382   11.223   -9.970
2 1   -1.068   14.514   -6.180
3 1  -20.372  -19.426  -25.064
4 1  -21.142   -4.116   12.785
5 1   -4.422    3.235   -1.100
6 1    0.085   -1.682   -1.742
7 1    4.612  -11.760   10.101
8 1    9.200   -1.951    8.054
9 1   -7.013   -5.372    1.563
10 1   -1.902   -4.487   -6.724
11 1   -5.575    9.392  -19.433
ITEM: TIMESTEP
11
ITEM: NUMBER OF ATOMS
11
ITEM: BOX BOUNDS xy xz yz pp pp pp
-17.55925640232852 -15.145042839955423 0.7071067811865476
-27.825344676529227 -26.825344676529227 0.7071067811865476
-7.855339969202355 -7.211745716296772 0.2928932188134524
ITEM: ATOMS id type xu yu zu
1 1    3.525   -2.364    7.278
2 1    5.151  -27.825    5.846
3 1    3.243    0.219   -4.687
4 1    8.533   -4.130   18.347
5 1    5.644   21.378   -7.855
6 1  -17.559    7.148    8.527
7 1    0.354  -15.388   -4.479
8 1    6.180   -1.842   -1.160
9 1   -1.755   -9.339   -5.330
10 1  -14.266   17.680   -4.754
11 1    4.776  -10.219    7.945
ITEM: TIMESTEP
12
ITEM: NUMBER OF ATOMS
11
ITEM: BOX BOUNDS xy xz yz pp pp pp
-24.135030011737875 -21.72081644936478 0.7071067811865476
-21.424667290773684 -20.424667290773684 0.7071067811865476
-20.94247816222812 -20.298883909322537 0.2928932188134524
ITEM: ATOMS id type xu yu zu
1 1  -18.732    9.206   -0.354
2 1   21.106  -13.065    0.764
3 1    3.672   12.329   -4.229
4 1    0.865  -21.425   -8.302
5 1    4.516   11.042   -2.817
6 1   20.564   17.602   -0.607
7 1  -24.135  -17.776   -7.779
8 1   11.158    3.103  -20.942
9 1   -2.288   16.134   -3.748
10 1   -7.500   20.546    0.534
11 1   -4.792    3.502    0.172
ITEM: TIMESTEP
13
ITEM: NUMBER OF ATOMS
11
ITEM: BOX BOUNDS xy xz yz pp pp pp
-16.840599858682374 -14.426386296309278 0.7071067811865476
-11.601701049822761 -10.601701049822761 0.7071067811865476
-10.001691898725158 -9.358097645819575 0.2928932188134524
ITEM: ATOMS id type xu yu zu
1 1   -4.291   12.085   11.157
2 1    8.409   -1.029   11.469
3 1   -0.497    4.666   10.337
4 1    8.088   17.898    4.513
5 1  -16.841  -11.602   13.501
6 1   -3.313    3.865   -8.515
7 1   10.009   -3.848   14.581
8 1   -5.322   11.181    6.744
9 1   -7.224   10.990   -9.016
10 1   -8.225    7.217   -6.253
11 1   -5.938   -3.439  -10.002
ITEM: TIMESTEP
14
ITEM: NUMBER OF ATOMS
11
ITEM: BOX BOUNDS xy xz yz pp pp pp
-14.023291454531368 -11.609077892158272 0.7071067811865476
-11.148710523659368 -10.148710523659368 0.7071067811865476
-19.521052872452323 -18.87745861954674 0.2928932188134524
ITEM: ATOMS id type xu yu zu
1 1   10.450    6.085   -0.693
2 1   -1.084    4.502   17.653
3 1    8.710   -5.085    7.774
4 1   -1.188   -1.990   18.665
5 1   -4.189   -4.792  -19.521
6 1  -14.023    4.511   -6.949
7 1    5.154  -11.149   -7.673
8 1    6.746   14.609    5.925
9 1   11.978   17.046   10.401
10 1   -9.184   -1.053    6.302
11 1   -4.148    4.519  -15.792
ITEM: TIMESTEP
15
ITEM: NUMBER OF ATOMS
11
ITEM: BOX BOUNDS xy xz yz pp pp pp
-11.640079711612021 -9.225866149238925 0.7071067811865476
-7.9954749069175985 -6.9954749069175985 0.7071067811865476
-22.370865111124708 -21.727270858219125 0.2928932188134524
ITEM: ATOMS id type xu yu zu
1 1   -8.286    5.289  -22.371
2 1  -11.077   -0.177  -17.194
3 1    0.571   -7.995   -2.916
4 1   -2.590    1.893   -5.638
5 1    0.897   -6.012    5.561
6 1   16.938    1.969    1.699
7 1  -11.640    6.934   -7.581
8 1   -8.088    5.574    1.810
9 1   11.072   14.429   -5.397
10 1    1.284   17.604    9.665
11 1    7.130   13.062   -6.046
ITEM: TIMESTEP
16
ITEM: NUMBER OF ATOMS
11
ITEM: BOX BOUNDS xy xz yz pp pp pp
-11.549826349293644 -9.135612786920548 0.7071067811865476
-22.271126318500144 -21.271126318500144 0.7071067811865476
-16.993336047222957 -16.349741794317374 0.2928932188134524
ITEM: ATOMS id type xu yu zu
1 1    6.366   14.093   16.209
2 1   -8.062   -2.517    3.827
3 1   -2.890   -3.918    6.840
4 1   -3.534  -17.879    3.618
5 1   -4.245   -7.315  -15.657
6 1   10.138  -22.271  -16.993
7 1   -2.758   12.290   13.097
8 1  -11.550   -1.776  -15.105
9 1   10.112  -14.766   -1.432
10 1   10.330   -2.224   14.702
11 1   -8.700    3.692    8.533
ITEM: TIMESTEP
17
ITEM: NUMBER OF ATOMS
11
ITEM: BOX BOUNDS xy xz yz pp pp pp
-16.374495930083416 -13.96028236771032 0.7071067811865476
-25.16303860965749 -24.16303860965749 0.7071067811865476
-7.750702870734348 -7.107108617828765 0.2928932188134524
ITEM: ATOMS id type xu yu zu
1 1   -1.397   13.863    5.481
2 1  -16.374   39.586    6.486
3 1    1.073  -13.988    0.818
4 1   -4.599    6.444    3.717
5 1   18.530    1.423    5.135
6 1    3.725   -1.485   -1.834
7 1   11.010    7.800   -6.294
8 1  -11.134   -0.674   11.614
9 1   -0.275   17.464   -7.751
10 1    1.416  -25.163   -5.957
11 1   -3.091    5.109   17.107
ITEM: TIMESTEP
18
ITEM: NUMBER OF ATOMS
11
ITEM: BOX BOUNDS xy xz yz pp pp pp
-18.23919852625194 -15.824984963878844 0.7071067811865476
-14.614036047221061 -13.614036047221061 0.7071067811865476
-19.45046958612039 -18.80687533321481 0.2928932188134524
ITEM: ATOMS id type xu yu zu
1 1    0.349   14.539    6.617
2 1    9.864   -4.662   13.850
3 1  -10.730    4.952   -9.521
4 1   -5.181  -14.614   -5.163
5 1    3.511   -0.688  -13.478
6 1   14.707    3.372   10.081
7 1    7.852   -6.649  -19.450
8 1   -9.154   12.252  -10.535
9 1    8.160   -6.124    3.931
10 1  -18.239   11.671   -0.397
11 1    8.858    1.899    7.981
ITEM: TIMESTEP
19
ITEM: NUMBER OF ATOMS
11
ITEM: BOX BOUNDS xy xz yz pp pp pp
-10.971543602553622 -8.557330040180526 0.7071067811865476
-18.988120593192946 -17.988120593192946 0.7071067811865476
-15.095726842240433 -14.45213258933485 0.2928932188134524
ITEM: ATOMS id type xu yu zu
1 1   -1.019    7.434  -15.096
2 1  -10.807    7.255   -0.392
3 1   -2.288   -1.796    5.017
4 1   -5.933    5.103   -9.158
5 1   -4.073    9.850   10.713
6 1  -10.972    8.386  -10.392
7 1    7.330  -18.988  -11.171
8 1   -5.090   -1.665   14.236
9 1    9.040   15.755   12.066
10 1   -2.829   -2.663   10.690
11 1    0.404   -1.570  -13.352
ITEM: TIMESTEP
20
ITEM: NUMBER OF ATOMS
11
ITEM: BOX BOUNDS xy xz yz pp pp pp
-9.960108890883996 -7.545895328510901 0.7071067811865476
-27.909964066938464 -26.909964066938464 0.7071067811865476
-10.49067745168616 -9.847083198780577 0.2928932188134524
ITEM: ATOMS id type xu yu zu
1 1   -1.065  -27.910   -4.561
2 1   -9.799    6.926   -4.787
3 1   -3.291   13.471  -10.491
4 1    3.167  -18.953    0.897
5 1    4.103    8.599   -8.987
6 1    3.197    3.182   -0.192
7 1    1.500    4.635    3.979
8 1   -9.960  -11.959   25.060
9 1   19.198  -13.917    4.502
10 1    6.274    7.513    1.404
11 1   -9.269   -1.824   -4.911
ITEM: TIMESTEP
21
ITEM: NUMBER OF ATOMS
11
ITEM: BOX BOUNDS xy xz yz pp pp pp
-23.049079377701382 -20.634865815328286 0.7071067811865476
-14.851564513254543 -13.851564513254543 0.7071067811865476
-11.81103172771823 -11.167437474812647 0.2928932188134524
ITEM: ATOMS id type xu yu zu
1 1    1.344   -2.684   -1.317
2 1   10.186   12.306  -11.811
3 1   -4.599   -7.908   12.237
4 1   -0.594   14.490   -4.776
5 1    0.260  -13.487   13.025
6 1   -3.626  -14.852   -5.925
7 1  -23.049   -0.318    1.125
8 1    2.881   14.981   -3.010
9 1    8.075    3.122   -1.933
10 1  -20.768    9.475   -5.040
11 1    0.180  -12.705    2.830
ITEM: TIMESTEP
22
ITEM: NUMBER OF ATOMS
11
ITEM: BOX BOUNDS xy xz yz pp pp pp
-26.983617416660472 -24.569403854287376 0.7071067811865476
-15.569415578650315 -14.569415578650315 0.7071067811865476
-7.252149257453661 -6.608555004548078 0.2928932188134524
ITEM: ATOMS id type xu yu zu
1 1    1.080    0.294   -1.348
2 1   10.492    9.662    7.259
3 1   33.211   -6.002   -3.795
4 1  -10.148    4.360   -6.875
5 1  -26.984  -12.133    0.723
6 1   10.098  -15.569   -6.124
7 1   -1.394   -7.285    5.312
8 1    0.040    3.213   -7.252
9 1   15.365   -0.004   12.935
10 1   -4.390    5.900   -6.794
11 1   -9.509   -7.044   -0.459
ITEM: TIMESTEP
23
ITEM: NUMBER OF ATOMS
11
ITEM: BOX BOUNDS xy xz yz pp pp pp
-21.444440467284505 -19.03022690491141 0.7071067811865476
-20.86390565456526 -19.86390565456526 0.7071067811865476
-19.581690855990107 -18.938096603084524 0.2928932188134524
ITEM: ATOMS id type xu yu zu
1 1   -2.187   15.392  -11.487
2 1  -10.903   17.002    6.088
3 1  -18.814    4.973    2.373
4 1  -21.444   -3.696   -0.175
5 1    7.314    9.545    0.957
6 1   10.335   -1.463   -8.575
7 1   -9.342    5.426  -19.582
8 1    6.778  -11.066   -3.592
9 1    5.054   12.179  -19.407
10 1   -8.062    0.491   -5.961
11 1    8.616  -20.864    3.618
ITEM: TIMESTEP
24
ITEM: NUMBER OF ATOMS
11
ITEM: BOX BOUNDS xy xz yz pp pp pp
-12.295742535464289 -9.881528973091193 0.7071067811865476
-14.640535735805917 -13.640535735805917 0.7071067811865476
-10.678765764865553 -10.03517151195997 0.2928932188134524
ITEM: ATOMS id type xu yu zu
1 1    4.259    0.491   11.022
2 1  -12.296   11.086   -7.029
3 1    7.256   -3.242    8.143
4 1    7.805  -14.641   -1.545
5 1   -0.924   -2.379   -7.557
6 1   18.514    2.091   15.550
7 1   -5.691  -10.618    1.322
8 1   -5.632   23.901    2.454
9 1   11.526   -2.242   -3.261
10 1   -0.309    3.557    8.496
11 1   -1.222   -6.809  -10.679
ITEM: TIMESTEP
25
ITEM: NUMBER OF ATOMS
11
ITEM: BOX BOUNDS xy xz yz pp pp pp
-14.702370890213132 -12.288157327840036 0.7071067811865476
-10.195198494057163 -9.195198494057163 0.7071067811865476
-4.771242064693321 -4.127647811787738 0.2928932188134524
ITEM: ATOMS id type xu yu zu
1 1   -0.767    5.730    4.579
2 1   -0.178   -6.001    1.468
3 1    5.718   -0.368    1.124
4 1   -1.505    9.155   -4.382
5 1    1.855    3.944    7.255
6 1   14.959    6.755    5.992
7 1  -14.702    6.064   22.937
8 1   -8.300  -10.195   -2.147
9 1   10.212    5.248   -4.771
10 1   -0.360   10.370    6.726
11 1   24.289   10.057    3.536
ITEM: TIMESTEP
26
ITEM: NUMBER OF ATOMS
11
ITEM: BOX BOUNDS xy xz yz pp pp pp
-5.223564651356952 -2.809351088983857 0.7071067811865476
-17.111676596244926 -16.111676596244926 0.7071067811865476
-13.95283025065327 -13.309235997747686 0.2928932188134524
ITEM: ATOMS id type xu yu zu
1 1    6.147   -3.490   -9.778
2 1    1.720    4.906  -13.953
3 1   -5.224   -3.693    2.656
4 1   -2.605    4.451    0.981
5 1   10.603  -17.112   16.571
6 1   14.177    0.503    6.503
7 1    6.065   -7.373    1.647
8 1    7.782    3.098   10.513
9 1    0.950    0.808   -7.678
10 1   -3.645   -4.597   17.055
11 1    2.405   -9.994    3.986
ITEM: TIMESTEP
27
ITEM: NUMBER OF ATOMS
11
ITEM: BOX BOUNDS xy xz yz pp pp pp
-15.526987831768356 -13.11277426939526 0.7071067811865476
-30.53764380426305 -29.53764380426305 0.7071067811865476
-14.941937652746844 -14.298343399841261 0.2928932188134524
ITEM: ATOMS id type xu yu zu
1 1   -1.920  -30.538    4.799
2 1  -15.527    5.785   -9.613
3 1  -14.583    4.943  -14.942
4 1   -4.467    2.044    6.122
5 1    7.449   -0.363   -8.324
6 1   19.238   -6.060   18.036
7 1   -4.525   11.613   10.700
8 1  -10.455    3.553    7.554
9 1    7.010   -1.989    3.020
10 1   -3.947  -11.718    9.840
11 1   -5.597   13.798    6.025
ITEM: TIMESTEP
28
ITEM: NUMBER OF ATOMS
11
ITEM: BOX BOUNDS xy xz yz pp pp pp
-14.19148777144487 -11.777274209071773 0.7071067811865476
-11.337920353935779 -10.337920353935779 0.7071067811865476
-15.645078538111965 -15.001484285206383 0.2928932188134524
ITEM: ATOMS id type xu yu zu
1 1   -8.926   -1.612   -2.864
2 1   -8.709    5.014   -4.786
3 1   16.317    8.609   -8.802
4 1   -0.190   -2.268  -15.645
5 1    9.313    9.498    9.255
6 1   -4.570   10.690   -2.098
7 1    9.351   18.125    1.401
8 1  -14.191   -3.169    6.410
9 1   12.199  -11.338   -1.905
10 1    2.333    4.350    9.104
11 1   -9.484   -4.235   10.080
ITEM: TIMESTEP
29
ITEM: NUMBER OF ATOMS
11
ITEM: BOX BOUNDS xy xz yz pp pp pp
-13.450100202683753 -11.035886640310657 0.7071067811865476
-26.64125939262139 -25.64125939262139 0.7071067811865476
-4.264286176335224 -3.6206919234296415 0.2928932188134524
ITEM: ATOMS id type xu yu zu
1 1    3.923    4.484   11.253
2 1    1.041    5.280   -3.146
3 1  -13.450  -12.953    0.743
4 1   -1.996   -6.546    3.180
5 1   -8.903    1.113   -0.195
6 1   -8.400  -22.982   14.565
7 1    3.166  -26.641   -4.264
8 1    3.938   -2.281    5.803
9 1   -9.733    1.752   -0.535
10 1   -1.831   -2.210    1.998
11 1    9.327   -5.301   -4.072
ITEM: TIMESTEP
30
ITEM: NUMBER OF ATOMS
11
ITEM: BOX BOUNDS xy xz yz pp pp pp
-22.772979966603657 -20.35876640423056 0.7071067811865476
-19.439217583317873 -18.439217583317873 0.7071067811865476
-24.32508512647113 -23.681490873565547 0.2928932188134524
ITEM: ATOMS id type xu yu zu
1 1    1.606   -1.201    3.856
2 1    7.183   12.912   -1.164
3 1  -22.773   -0.696    3.539
4 1   -1.870   -1.532  -24.325
5 1    5.080   -3.240  -15.111
6 1   -8.714   -8.648    6.087
7 1    5.616   15.148    6.479
8 1  -13.516  -14.092   11.307
9 1   15.667   -2.377    5.588
10 1  -15.049  -19.439  -11.740
11 1   -3.572   -5.214   -2.301
ITEM: TIMESTEP
31
ITEM: NUMBER OF ATOMS
11
ITEM: BOX BOUNDS xy xz yz pp pp pp
-15.443957813866982 -13.029744251493886 0.7071067811865476
-15.465610399686572 -14.465610399686572 0.7071067811865476
-21.810279670819494 -21.16668541791391 0.2928932188134524
ITEM: ATOMS id type xu yu zu
1 1   -4.910    6.793   14.275
2 1    0.362   20.300   -6.344
3 1   -5.251    3.877   -3.548
4 1   11.771   -6.411   13.227
5 1    1.942   25.655   -4.641
6 1   -2.027    1.457  -21.810
7 1    6.023    4.808    1.093
8 1  -15.444  -15.466    5.866
9 1   11.752   15.945   -8.954
10 1  -10.308   -2.719  -19.757
11 1   -5.889    8.518   16.346
ITEM: TIMESTEP
32
ITEM: NUMBER OF ATOMS
11
ITEM: BOX BOUNDS xy xz yz pp pp pp
-2.548529472438891 -0.1343159100657958 0.7071067811865476
-19.878295313946218 -18.878295313946218 0.7071067811865476
-20.48200458740775 -19.838410334502168 0.2928932188134524
ITEM: ATOMS id type xu yu zu
1 1    2.792   16.406    4.109
2 1    1.914   -1.714    1.869
3 1   -2.549   -1.409   -6.619
4 1    2.590    0.144  -14.796
5 1   -2.407   -8.557  -20.482
6 1    4.839   15.587   23.697
7 1   15.624   -8.708   11.752
8 1   11.199  -19.878    8.613
9 1    6.272    1.628    2.886
10 1    0.583   16.319   -4.018
11 1   -1.999    0.074    2.757
ITEM: TIMESTEP
33
ITEM: NUMBER OF ATOMS
11
ITEM: BOX BOUNDS xy xz yz pp pp pp
-23.08038513628299 -20.666171573909896 0.7071067811865476
-12.79426156313522 -11.79426156313522 0.7071067811865476
-17.745959882248336 -17.102365629342753 0.2928932188134524
ITEM: ATOMS id type xu yu zu
1 1  -17.632   13.880    2.262
2 1    5.691    1.973   -1.864
3 1   -3.552    0.961    1.521
4 1   11.553    3.461   -1.335
5 1   19.866  -12.794  -13.402
6 1    3.546   -2.124  -17.746
7 1   -3.122   -7.107   11.311
8 1   -6.213   10.506    4.598
9 1   -2.063    0.212    4.287
10 1  -23.080    3.271   -3.791
11 1   17.979   -6.913   11.426
ITEM: TIMESTEP
34
ITEM: NUMBER OF ATOMS
11
ITEM: BOX BOUNDS xy xz yz pp pp pp
-25.149246244057778 -22.735032681684682 0.7071067811865476
-12.238796505752447 -11.238796505752447 0.7071067811865476
-17.87737708417842 -17.233782831272837 0.2928932188134524
ITEM: ATOMS id type xu yu zu
1 1  -25.149    8.146    2.761
2 1   -2.470   -1.209   -2.606
3 1    4.230   -1.342  -17.877
4 1   -1.858   22.347    0.468
5 1    2.908   -4.381    1.741
6 1    1.779   -2.612    8.633
7 1   -9.231   -1.302    5.051
8 1   -2.670  -12.239    5.583
9 1   -9.822   -4.473   -8.281
10 1   -1.107   -4.294   -4.746
11 1    6.810   17.626   -3.575
ITEM: TIMESTEP
35
ITEM: NUMBER OF ATOMS
11
ITEM: BOX BOUNDS xy xz yz pp pp pp
-9.889644570915376 -7.475431008542281 0.7071067811865476
-17.49405421729222 -16.49405421729222 0.7071067811865476
-14.243336751810016 -13.599742498904433 0.2928932188134524
ITEM: ATOMS id type xu yu zu
1 1    5.227   -3.554    0.989
2 1   11.278    0.503   -8.155
3 1   -7.299   -6.167   -0.133
4 1    8.580  -13.588  -10.373
5 1   -9.245  -17.494   13.259
6 1   -0.364   19.008  -14.243
7 1   12.942   -7.016   -4.074
8 1   -9.890   -9.499  -13.237
9 1    2.163  -13.142   -2.418
10 1   -0.092    6.666    1.004
11 1    3.213    5.144   -0.173
ITEM: TIMESTEP
36
ITEM: NUMBER OF ATOMS
11
ITEM: BOX BOUNDS xy xz yz pp pp pp
-14.48991548522045 -12.075701922847355 0.7071067811865476
-9.797201914449795 -8.797201914449795 0.7071067811865476
-10.863009072108918 -10.219414819203335 0.2928932188134524
ITEM: ATOMS id type xu yu zu
1 1    3.633   -9.797   -7.755
2 1   18.975   -0.117   -7.105
3 1   13.799   -1.568   -6.465
4 1  -14.490    7.795  -10.863
5 1   -5.390    6.441    1.836
6 1   -0.864   -2.140   11.459
7 1   22.303   -5.488    5.689
8 1   19.288   10.791   -6.868
9 1   -4.307   -5.980   -9.134
10 1   -6.239    2.619   -5.870
11 1    8.762    1.233   -3.971
ITEM: TIMESTEP
37
ITEM: NUMBER OF ATOMS
11
ITEM: BOX BOUNDS xy xz yz pp pp pp
-15.61119890658687 -13.196985344213774 0.7071067811865476
-12.688589591737998 -11.688589591737998 0.7071067811865476
-10.237993163261986 -9.594398910356404 0.2928932188134524
ITEM: ATOMS id type xu yu zu
1 1    8.861    3.190    2.649
2 1   10.400    5.733   -1.089
3 1    9.376    3.093   29.173
4 1   10.987   11.532   12.910
5 1    0.798   13.129    0.234
6 1   -8.312   -5.640    5.280
7 1  -15.611    2.084   -7.284
8 1    7.182   -7.462   18.723
9 1    7.678  -12.689   17.588
10 1   -2.273   -7.275  -10.238
11 1    5.678   15.045   -5.784
ITEM: TIMESTEP
38
ITEM: NUMBER OF ATOMS
11
ITEM: BOX BOUNDS xy xz yz pp pp pp
-11.865517009450086 -9.45130344707699 0.7071067811865476
-12.011556552534499 -11.011556552534499 0.7071067811865476
-18.792869914501683 -18.1492756615961 0.2928932188134524
ITEM: ATOMS id type xu yu zu
1 1   -9.976  -11.397   14.964
2 1   16.707   -3.485    5.377
3 1   -0.029   -0.606    9.640
4 1    4.410    3.295   -2.926
5 1    8.156   -2.820    0.499
6 1    2.195  -12.012   -2.991
7 1   -3.126    1.012  -11.118
8 1  -11.866   16.235   11.564
9 1    8.890   18.248    4.196
10 1   -0.911    4.822  -18.793
11 1  -10.981    7.586    0.326
ITEM: TIMESTEP
39
ITEM: NUMBER OF ATOMS
11
ITEM: BOX BOUNDS xy xz yz pp pp pp
-20.325397888215875 -17.91118432584278 0.7071067811865476
-14.768989811854809 -13.768989811854809 0.7071067811865476
-12.477341209058203 -11.83374695615262 0.2928932188134524
ITEM: ATOMS id type xu yu zu
1 1  -12.776    6.585    9.989
2 1    6.679   -0.303   -8.360
3 1    1.076    4.269   -3.586
4 1    6.030    3.144    3.331
5 1  -20.325   10.811   17.244
6 1   -4.025  -14.769    6.389
7 1   -4.657   -9.670   12.177
8 1  -13.834    7.174  -12.477
9 1   14.623    5.166   -2.574
10 1    1.494    5.821    8.299
11 1    8.278    5.467   -4.774
ITEM: TIMESTEP
40
ITEM: NUMBER OF ATOMS
11
ITEM: BOX BOUNDS xy xz yz pp pp pp
-8.43911487937803 -6.024901317004935 0.7071067811865476
-13.113243820094933 -12.113243820094933 0.7071067811865476
-24.982127142596624 -24.33853288969104 0.2928932188134524
ITEM: ATOMS id type xu yu zu
1 1    6.641  -13.113   10.041
2 1    8.730   13.941   -5.888
3 1    1.862    8.583    3.179
4 1   -4.267    3.073    0.680
5 1    9.957   -6.285    3.395
6 1    2.929    7.573   -0.729
7 1    1.273   -0.709    0.341
8 1    0.084   -3.267   28.273
9 1   -8.439  -11.734   -7.956
10 1   -7.101    0.114   14.309
11 1   16.884    2.373  -24.982
ITEM: TIMESTEP
41
ITEM: NUMBER OF ATOMS
11
ITEM: BOX BOUNDS xy xz yz pp pp pp
-11.49722788141142 -9.083014319038325 0.7071067811865476
-13.254912656949859 -12.254912656949859 0.7071067811865476
-21.606280042996676 -20.962685790091093 0.2928932188134524
ITEM: ATOMS id type xu yu zu
1 1    3.844  -13.107   -5.007
2 1  -11.497    4.256   -6.266
3 1    7.721    4.773   -2.401
4 1    0.806    9.174   -3.721
5 1    9.156   -0.193    2.694
6 1    7.992   13.315    5.208
7 1    0.584    7.207  -15.454
8 1   16.390  -13.255    9.037
9 1   -5.642    5.073   -1.166
10 1    3.036   -8.008  -21.606
11 1    4.067   -6.005   -6.486
ITEM: TIMESTEP
42
ITEM: NUMBER OF ATOMS
11
ITEM: BOX BOUNDS xy xz yz pp pp pp
-10.981486325572188 -8.567272763199092 0.7071067811865476
-26.006418091130946 -25.006418091130946 0.7071067811865476
-6.15491639425755 -5.511322141351967 0.2928932188134524
ITEM: ATOMS id type xu yu zu
1 1   -7.253   19.844   -5.822
2 1    3.268  -11.604   15.231
3 1   -5.563  -26.006   27.119
4 1  -10.981   13.089    7.331
5 1    6.522   -2.315    1.892
6 1   12.239   -3.009    2.513
7 1    9.283    0.834   -4.250
8 1   14.517    3.417   -1.252
9 1   -7.759  -10.056    8.938
10 1    9.493  -21.707   -6.155
11 1    9.649   24.243   21.504
ITEM: TIMESTEP
43
ITEM: NUMBER OF ATOMS
11
ITEM: BOX BOUNDS xy xz yz pp pp pp
-8.893309139745153 -6.479095577372058 0.7071067811865476
-12.371647009313788 -11.371647009313788 0.7071067811865476
-15.37028866939562 -14.726694416490037 0.2928932188134524
ITEM: ATOMS id type xu yu zu
1 1    9.419   13.733   -5.274
2 1    7.745  -12.372   -5.619
3 1    3.210   21.679    7.480
4 1    2.738   -1.701  -13.224
5 1    6.029   -3.491    2.390
6 1   -8.893    1.213  -15.370
7 1    5.039   13.197    9.140
8 1   21.138    3.246    5.054
9 1    5.149   -8.797   21.532
10 1    9.886   -2.428   -9.028
11 1    5.815    8.575    1.379
ITEM: TIMESTEP
44
ITEM: NUMBER OF ATOMS
11
ITEM: BOX BOUNDS xy xz yz pp pp pp
-10.433996069036862 -8.019782506663766 0.7071067811865476
-12.041013496697026 -11.041013496697026 0.7071067811865476
-31.533574501910486 -30.889980249004903 0.2928932188134524
ITEM: ATOMS id type xu yu zu
1 1    1.861   -1.881   -0.027
2 1   13.351   14.006  -15.002
3 1    1.389  -12.041  -13.357
4 1    5.860   -8.416  -31.534
5 1    6.452   12.821   20.388
6 1   -3.963   14.454  -26.210
7 1  -10.434    5.190    4.715
8 1   13.204    9.567   -0.816
9 1   15.292    6.865   17.171
10 1   -8.043    3.003   -4.296
11 1    8.059   -2.196   -2.519
ITEM: TIMESTEP
45
ITEM: NUMBER OF ATOMS
11
ITEM: BOX BOUNDS xy xz yz pp pp pp
-13.264896477767877 -10.850682915394781 0.7071067811865476
-30.160319852092986 -29.160319852092986 0.7071067811865476
-16.19645693820656 -15.552862685300976 0.2928932188134524
ITEM: ATOMS id type xu yu zu
1 1  -13.265    3.082   11.155
2 1   10.082  -30.160  -16.196
3 1   20.051   -1.876   -1.489
4 1   11.653    1.966   -6.326
5 1   -2.098   18.972  -13.814
6 1   13.012   -3.124   -2.712
7 1   18.629   -6.429    8.351
8 1   -3.631  -14.321   -1.660
9 1   11.689   -1.859    5.494
10 1    1.886    0.468   -4.175
11 1    1.318  -20.329   -4.483
ITEM: TIMESTEP
46
ITEM: NUMBER OF ATOMS
11
ITEM: BOX BOUNDS xy xz yz pp pp pp
-18.14727087567263 -15.733057313299533 0.7071067811865476
-23.18428477687406 -22.18428477687406 0.7071067811865476
-26.17290094387935 -25.529306690973765 0.2928932188134524
ITEM: ATOMS id type xu yu zu
1 1  -18.039    2.697    3.547
2 1   -7.961    8.013    3.958
3 1    2.936   -3.614    4.728
4 1   10.542   -6.604   -8.168
5 1   11.890  -23.184  -26.173
6 1  -18.147    1.817    1.524
7 1    4.965    0.760   15.374
8 1   15.758   11.590  -11.558
9 1    3.636   -8.662   -5.007
10 1  -10.234    0.107    5.441
11 1    0.787  -11.934  -15.260
ITEM: TIMESTEP
47
ITEM: NUMBER OF ATOMS
11
ITEM: BOX BOUNDS xy xz yz pp pp pp
-24.53891930331267 -22.124705740939575 0.7071067811865476
-21.510431552039577 -20.510431552039577 0.7071067811865476
-15.357522087918912 -14.71392783501333 0.2928932188134524
ITEM: ATOMS id type xu yu zu
1 1   -7.621   -7.776    7.843
2 1   -3.193   -1.887   -1.569
3 1   10.968   16.361    4.271
4 1   -2.483   14.025    4.382
5 1   -4.211   10.106    2.072
6 1  -14.340    6.269    2.998
7 1  -18.566  -21.510    1.363
8 1    6.834    6.086  -13.610
9 1   -3.470    6.666  -15.358
10 1    0.853    2.133    9.238
11 1  -24.539    1.450   20.181
ITEM: TIMESTEP
48